
  **** **** ******  **  PROGRAM STARTED AT               2022-03-25 08:56:01.275
 ***** ** ***  *** **   PROGRAM STARTED ON                          threadripper
 **    ****   ******    PROGRAM STARTED BY                                 simon
 ***** **    ** ** **   PROGRAM PROCESS ID                               2874655
  **** **  *******  **  PROGRAM STARTED IN /fast-scratch/cp2k-generate-upf/NC-La
                                           nthanide-pseudos/La

 CP2K| version string:                                          CP2K version 8.2
 CP2K| source code revision number:                                  git:310b7ab
 CP2K| cp2kflags: omp libint fftw3 libxc parallel mpi3 scalapack xsmm           
 CP2K| is freely available from                            https://www.cp2k.org/
 CP2K| Program compiled at                          Wed Mar 23 11:46:09 CET 2022
 CP2K| Program compiled on                                          threadripper
 CP2K| Program compiled for                                   linux-arch-zen-gcc
 CP2K| Data directory path    /mnt/nvme/spack/opt/spack/linux-arch-zen/gcc-11.2.
 CP2K| Input file name                                                    La.inp

 GLOBAL| Method name                                                        ATOM
 GLOBAL| Project name                                                    PROJECT
 GLOBAL| Run type                                                   ENERGY_FORCE
 GLOBAL| FFT library                                                       FFTW3
 GLOBAL| Diagonalization library                                       ScaLAPACK
 GLOBAL| Orthonormality check for eigenvectors                          DISABLED
 GLOBAL| Matrix multiplication library                                    SCALAP
 GLOBAL| All-to-all communication in single precision                          F
 GLOBAL| FFTs using library dependent lengths                                  F
 GLOBAL| Grid backend                                                       AUTO
 GLOBAL| Global print level                                               MEDIUM
 GLOBAL| MPI I/O enabled                                                       T
 GLOBAL| Total number of message passing processes                             1
 GLOBAL| Number of threads for this process                                   32
 GLOBAL| This output is from process                                           0
 GLOBAL| CPU model name           AMD Ryzen Threadripper 1950X 16-Core Processor
 GLOBAL| CPUID                                                              1002

 MEMORY| system memory details [Kb]
 MEMORY|                        rank 0           min           max       average
 MEMORY| MemTotal             65758036      65758036      65758036      65758036
 MEMORY| MemFree              35195888      35195888      35195888      35195888
 MEMORY| Buffers               3437484       3437484       3437484       3437484
 MEMORY| Cached               21319036      21319036      21319036      21319036
 MEMORY| Slab                  3652684       3652684       3652684       3652684
 MEMORY| SReclaimable          3278288       3278288       3278288       3278288
 MEMORY| MemLikelyFree        63230696      63230696      63230696      63230696


 *** Fundamental physical constants (SI units) ***

 *** Literature: B. J. Mohr and B. N. Taylor,
 ***             CODATA recommended values of the fundamental physical
 ***             constants: 2006, Web Version 5.1
 ***             http://physics.nist.gov/constants

 Speed of light in vacuum [m/s]                             2.99792458000000E+08
 Magnetic constant or permeability of vacuum [N/A**2]       1.25663706143592E-06
 Electric constant or permittivity of vacuum [F/m]          8.85418781762039E-12
 Planck constant (h) [J*s]                                  6.62606896000000E-34
 Planck constant (h-bar) [J*s]                              1.05457162825177E-34
 Elementary charge [C]                                      1.60217648700000E-19
 Electron mass [kg]                                         9.10938215000000E-31
 Electron g factor [ ]                                     -2.00231930436220E+00
 Proton mass [kg]                                           1.67262163700000E-27
 Fine-structure constant                                    7.29735253760000E-03
 Rydberg constant [1/m]                                     1.09737315685270E+07
 Avogadro constant [1/mol]                                  6.02214179000000E+23
 Boltzmann constant [J/K]                                   1.38065040000000E-23
 Atomic mass unit [kg]                                      1.66053878200000E-27
 Bohr radius [m]                                            5.29177208590000E-11

 *** Conversion factors ***

 [u] -> [a.u.]                                              1.82288848426455E+03
 [Angstrom] -> [Bohr] = [a.u.]                              1.88972613288564E+00
 [a.u.] = [Bohr] -> [Angstrom]                              5.29177208590000E-01
 [a.u.] -> [s]                                              2.41888432650478E-17
 [a.u.] -> [fs]                                             2.41888432650478E-02
 [a.u.] -> [J]                                              4.35974393937059E-18
 [a.u.] -> [N]                                              8.23872205491840E-08
 [a.u.] -> [K]                                              3.15774647902944E+05
 [a.u.] -> [kJ/mol]                                         2.62549961709828E+03
 [a.u.] -> [kcal/mol]                                       6.27509468713739E+02
 [a.u.] -> [Pa]                                             2.94210107994716E+13
 [a.u.] -> [bar]                                            2.94210107994716E+08
 [a.u.] -> [atm]                                            2.90362800883016E+08
 [a.u.] -> [eV]                                             2.72113838565563E+01
 [a.u.] -> [Hz]                                             6.57968392072181E+15
 [a.u.] -> [1/cm] (wave numbers)                            2.19474631370540E+05
 [a.u./Bohr**2] -> [1/cm]                                   5.14048714338585E+03
 
 DBCSR| CPU Multiplication driver                                           XSMM
 DBCSR| Multrec recursion limit                                              512
 DBCSR| Multiplication stack size                                           1000
 DBCSR| Maximum elements for images                                    UNLIMITED
 DBCSR| Multiplicative factor virtual images                                   1
 DBCSR| Use multiplication densification                                       T
 DBCSR| Multiplication size stacks                                             3
 DBCSR| Use memory pool for CPU allocation                                     F
 DBCSR| Number of 3D layers                                               SINGLE
 DBCSR| Use MPI memory allocation                                              F
 DBCSR| Use RMA algorithm                                                      F
 DBCSR| Use Communication thread                                               T
 DBCSR| Communication thread load                                              0
 DBCSR| MPI: My node id                                                        0
 DBCSR| MPI: Number of nodes                                                   1
 DBCSR| OMP: Current number of threads                                        32
 DBCSR| OMP: Max number of threads                                            32
 DBCSR| Split modifier for TAS multiplication algorithm                  1.0E+00



                           ****  ******  ****   ****   
                          **  ** ****** **  ** ******  
                          ******   **   **  ** **  **  
                          **  **   **    ****  **  **  
                                                       
                             University of Zurich      
                                 2009 - 2015           
                                                       
                                 Version 0.0           
                                                                   


 Atomic Energy Calculation             Lanthanum [La]        Atomic number:   57


 METHOD    | Restricted Kohn-Sham Calculation
 METHOD    | Nonrelativistic Calculation
 FUNCTIONAL| ROUTINE=NEW
 FUNCTIONAL| PBE:
 FUNCTIONAL| J.P.Perdew, K.Burke, M.Ernzerhof, Phys. Rev. Letter, vol. 77, n 18,
 FUNCTIONAL|  pp. 3865-3868, (1996){spin unpolarized}                           

 Electronic structure
    Total number of core electrons                                         46.00
    Total number of valence electrons                                      11.00
    Total number of electrons                                              57.00
    Multiplicity                                                   not specified
    S   [  2.00  2.00  2.00  2.00] 2.00  2.00
    P   [  6.00  6.00  6.00] 6.00
    D   [ 10.00 10.00] 1.00


 *******************************************************************************
                  Iteration          Convergence                     Energy [au]
 *******************************************************************************
                          1        0.447115                     -31.383223276539
                          2        0.316747                     -31.443555858710
                          3        0.110071E-01                 -31.530211357029
                          4        0.412377E-02                 -31.530516336167
                          5        0.116623E-03                 -31.530535353694
                          6        0.584350E-05                 -31.530535362089
                          7        0.193970E-06                 -31.530535362174

 Energy components [Hartree]           Total Energy ::          -31.530535362174
                                        Band Energy ::           -8.271814801957
                                     Kinetic Energy ::            8.091042635791
                                   Potential Energy ::          -39.621577997965
                                      Virial (-V/T) ::            4.896968138902
                                        Core Energy ::          -51.887535581257
                                          XC Energy ::           -4.115152924398
                                     Coulomb Energy ::           24.472153143481
                       Total Pseudopotential Energy ::          -59.978578217047
                       Local Pseudopotential Energy ::          -59.666849811677
                    Nonlocal Pseudopotential Energy ::           -0.311728405370

 Orbital energies  State     L     Occupation   Energy[a.u.]          Energy[eV]

                       1     0          2.000      -1.454721          -39.584968
                       2     0          2.000      -0.135121           -3.676837

                       1     1          6.000      -0.829818          -22.580490

                       1     2          1.000      -0.113224           -3.080978


 Total Electron Density at R=0:                                         0.000038

 Basis Set Condition Numbers: 2*covalent radius=  6.3873
 Lattice constant:          5.749                Condition number:      100.0000
 Lattice constant:          6.068                Condition number:      100.0000
 Lattice constant:          6.387                Condition number:      100.0000
 Lattice constant:          6.707                Condition number:      100.0000
 Lattice constant:          7.026                Condition number:      100.0000
 Lattice constant:          7.345                Condition number:      100.0000
 Lattice constant:          7.665                Condition number:      100.0000
 Lattice constant:          7.984                Condition number:      100.0000
 Lattice constant:          8.303                Condition number:      100.0000
 Lattice constant:            Inf                Condition number:      100.0000

 Basis Set Completeness Estimates
   L-quantum number:   0
    Slater Exponent           Completeness n-qm= 1          Completeness n-qm= 6
         113.400000                       1.000000                      0.999987
         100.825794                       1.000000                      0.999999
          88.251587                       1.000000                      0.999988
          75.677381                       1.000000                      0.999994
          63.103175                       1.000000                      0.999988
          50.528968                       1.000000                      0.999999
          37.954762                       1.000000                      0.999995
          25.380556                       1.000000                      0.999999
          12.806349                       1.000000                      0.999999
           0.232143                       0.996099                      0.125530
   L-quantum number:   1
    Slater Exponent           Completeness n-qm= 2          Completeness n-qm= 5
          39.250000                       1.000000                      0.999998
          34.956250                       1.000000                      0.999995
          30.662500                       1.000000                      0.999999
          26.368750                       1.000000                      0.999996
          22.075000                       1.000000                      0.999998
          17.781250                       1.000000                      0.999995
          13.487500                       1.000000                      0.999996
           9.193750                       1.000000                      0.999995
           4.900000                       1.000000                      0.999996
           0.606250                       0.997678                      0.734359
   L-quantum number:   2
    Slater Exponent           Completeness n-qm= 3          Completeness n-qm= 5
          14.000000                       1.000000                      0.999999
          12.504861                       1.000000                      0.999995
          11.009722                       1.000000                      0.999995
           9.514583                       1.000000                      0.999998
           8.019444                       1.000000                      0.999994
           6.524306                       1.000000                      0.999997
           5.029167                       1.000000                      0.999999
           3.534028                       1.000000                      0.999998
           2.038889                       1.000000                      0.999994
           0.543750                       0.966433                      0.668743


                             NORMAL TERMINATION OF     
                                                       
                           ****  ******  ****   ****   
                          **  ** ****** **  ** ******  
                          ******   **   **  ** **  **  
                          **  **   **    ****  **  **  


 -------------------------------------------------------------------------------
 -                                                                             -
 -                                DBCSR STATISTICS                             -
 -                                                                             -
 -------------------------------------------------------------------------------
 COUNTER                                    TOTAL       BLAS       SMM       ACC
 flops inhomo. stacks                           0       0.0%      0.0%      0.0%
 flops total                         0.000000E+00       0.0%      0.0%      0.0%
 flops max/rank                      0.000000E+00       0.0%      0.0%      0.0%
 matmuls inhomo. stacks                         0       0.0%      0.0%      0.0%
 matmuls total                                  0       0.0%      0.0%      0.0%
 number of processed stacks                     0       0.0%      0.0%      0.0%
 average stack size                                     0.0       0.0       0.0
 marketing flops                     0.000000E+00
 -------------------------------------------------------------------------------
 -                                                                             -
 -                      DBCSR MESSAGE PASSING PERFORMANCE                      -
 -                                                                             -
 -------------------------------------------------------------------------------
 ROUTINE             CALLS      AVE VOLUME [Bytes]
 MP_Bcast                1                     12.
 MP_Allreduce           19                     21.
 -------------------------------------------------------------------------------

 -------------------------------------------------------------------------------
 -                                                                             -
 -                                GRID STATISTICS                              -
 -                                                                             -
 -------------------------------------------------------------------------------
 LP    KERNEL             BACKEND                              COUNT     PERCENT
 -------------------------------------------------------------------------------

 MEMORY| Estimated peak process memory [MiB]                                 124

 -------------------------------------------------------------------------------
 -                                                                             -
 -                         MESSAGE PASSING PERFORMANCE                         -
 -                                                                             -
 -------------------------------------------------------------------------------

 ROUTINE             CALLS      AVE VOLUME [Bytes]
 MP_Allreduce          262                      8.
 -------------------------------------------------------------------------------


 -------------------------------------------------------------------------------
 -                                                                             -
 -                           R E F E R E N C E S                               -
 -                                                                             -
 -------------------------------------------------------------------------------
 
 CP2K version 8.2, the CP2K developers group (2021).
 CP2K is freely available from https://www.cp2k.org/ .

 Schuett, Ole; Messmer, Peter; Hutter, Juerg; VandeVondele, Joost. 
 Electronic Structure Calculations on Graphics Processing Units, John
 Wiley & Sons, Ltd, 173-190 (2016). 
 GPU-Accelerated Sparse Matrix-Matrix Multiplication for
 Linear Scaling Density Functional Theory.
 https://doi.org/10.1002/9781118670712.ch8

 Heinecke, A; Henry, G; Hutchinson, M; Pabst, H. 
 Proceedings of Intl. Supercomputing Conference, 981-991 (2016). 
 LIBXSMM: Accelerating Small Matrix Multiplications
 by Runtime Code Generation.
 https://doi.org/10.1109/SC.2016.83

 Borstnik, U; VandeVondele, J; Weber, V; Hutter, J. 
 PARALLEL COMPUTING, 40 (5-6), 47-58 (2014). 
 Sparse matrix multiplication: The distributed block-compressed sparse
 row library.
 https://doi.org/10.1016/j.parco.2014.03.012

 Hutter, J; Iannuzzi, M; Schiffmann, F; VandeVondele, J. 
 WIREs Comput Mol Sci., 4 (1), 15-25 (2014). 
 CP2K: atomistic simulations of condensed matter systems.
 https://doi.org/10.1002/wcms.1159

 Frigo, M; Johnson, SG. 
 PROCEEDINGS OF THE IEEE, 93 (2), 216-231 (2005). 
 The design and implementation of FFTW3.
 https://doi.org/10.1109/JPROC.2004.840301

 Perdew, JP; Burke, K; Ernzerhof, M. 
 PHYSICAL REVIEW LETTERS, 77 (18), 3865-3868 (1996). 
 Generalized gradient approximation made simple.
 https://doi.org/10.1103/PhysRevLett.77.3865


 -------------------------------------------------------------------------------
 -                                                                             -
 -                                T I M I N G                                  -
 -                                                                             -
 -------------------------------------------------------------------------------
 SUBROUTINE                       CALLS  ASD         SELF TIME        TOTAL TIME
                                MAXIMUM       AVERAGE  MAXIMUM  AVERAGE  MAXIMUM
 CP2K                                 1  1.0    0.021    0.021    0.551    0.551
 atom_code                            1  2.0    0.000    0.000    0.529    0.529
 atom_energy_opt                      1  3.0    0.474    0.474    0.529    0.529
 calculate_atom                       1  4.0    0.000    0.000    0.050    0.050
 calculate_atom_restricted            1  5.0    0.020    0.020    0.050    0.050
 calculate_atom_vxc_lda               7  6.0    0.013    0.013    0.030    0.030
 xc_functional_eval                   7  7.0    0.000    0.000    0.017    0.017
 pbe_lda_eval                         7  8.0    0.017    0.017    0.017    0.017
 -------------------------------------------------------------------------------

 The number of warnings for this run is : 0
 
 -------------------------------------------------------------------------------
  **** **** ******  **  PROGRAM ENDED AT                 2022-03-25 08:56:02.095
 ***** ** ***  *** **   PROGRAM RAN ON                              threadripper
 **    ****   ******    PROGRAM RAN BY                                     simon
 ***** **    ** ** **   PROGRAM PROCESS ID                               2874655
  **** **  *******  **  PROGRAM STOPPED IN /fast-scratch/cp2k-generate-upf/NC-La
                                           nthanide-pseudos/La
