
  **** **** ******  **  PROGRAM STARTED AT               2022-03-25 00:15:18.969
 ***** ** ***  *** **   PROGRAM STARTED ON                          threadripper
 **    ****   ******    PROGRAM STARTED BY                                 simon
 ***** **    ** ** **   PROGRAM PROCESS ID                               2801515
  **** **  *******  **  PROGRAM STARTED IN /fast-scratch/cp2k-generate-upf/lanth
                                           anides-nc-pseudos/Pr

 CP2K| version string:                                          CP2K version 8.2
 CP2K| source code revision number:                                  git:310b7ab
 CP2K| cp2kflags: omp libint fftw3 libxc parallel mpi3 scalapack xsmm           
 CP2K| is freely available from                            https://www.cp2k.org/
 CP2K| Program compiled at                          Wed Mar 23 11:46:09 CET 2022
 CP2K| Program compiled on                                          threadripper
 CP2K| Program compiled for                                   linux-arch-zen-gcc
 CP2K| Data directory path    /mnt/nvme/spack/opt/spack/linux-arch-zen/gcc-11.2.
 CP2K| Input file name                                                    Pr.inp

 GLOBAL| Method name                                                        ATOM
 GLOBAL| Project name                                                    PROJECT
 GLOBAL| Run type                                                   ENERGY_FORCE
 GLOBAL| FFT library                                                       FFTW3
 GLOBAL| Diagonalization library                                       ScaLAPACK
 GLOBAL| Orthonormality check for eigenvectors                          DISABLED
 GLOBAL| Matrix multiplication library                                    SCALAP
 GLOBAL| All-to-all communication in single precision                          F
 GLOBAL| FFTs using library dependent lengths                                  F
 GLOBAL| Grid backend                                                       AUTO
 GLOBAL| Global print level                                               MEDIUM
 GLOBAL| MPI I/O enabled                                                       T
 GLOBAL| Total number of message passing processes                             1
 GLOBAL| Number of threads for this process                                   32
 GLOBAL| This output is from process                                           0
 GLOBAL| CPU model name           AMD Ryzen Threadripper 1950X 16-Core Processor
 GLOBAL| CPUID                                                              1002

 MEMORY| system memory details [Kb]
 MEMORY|                        rank 0           min           max       average
 MEMORY| MemTotal             65758036      65758036      65758036      65758036
 MEMORY| MemFree              35183736      35183736      35183736      35183736
 MEMORY| Buffers               3422896       3422896       3422896       3422896
 MEMORY| Cached               21313412      21313412      21313412      21313412
 MEMORY| Slab                  3652064       3652064       3652064       3652064
 MEMORY| SReclaimable          3276576       3276576       3276576       3276576
 MEMORY| MemLikelyFree        63196620      63196620      63196620      63196620


 *** Fundamental physical constants (SI units) ***

 *** Literature: B. J. Mohr and B. N. Taylor,
 ***             CODATA recommended values of the fundamental physical
 ***             constants: 2006, Web Version 5.1
 ***             http://physics.nist.gov/constants

 Speed of light in vacuum [m/s]                             2.99792458000000E+08
 Magnetic constant or permeability of vacuum [N/A**2]       1.25663706143592E-06
 Electric constant or permittivity of vacuum [F/m]          8.85418781762039E-12
 Planck constant (h) [J*s]                                  6.62606896000000E-34
 Planck constant (h-bar) [J*s]                              1.05457162825177E-34
 Elementary charge [C]                                      1.60217648700000E-19
 Electron mass [kg]                                         9.10938215000000E-31
 Electron g factor [ ]                                     -2.00231930436220E+00
 Proton mass [kg]                                           1.67262163700000E-27
 Fine-structure constant                                    7.29735253760000E-03
 Rydberg constant [1/m]                                     1.09737315685270E+07
 Avogadro constant [1/mol]                                  6.02214179000000E+23
 Boltzmann constant [J/K]                                   1.38065040000000E-23
 Atomic mass unit [kg]                                      1.66053878200000E-27
 Bohr radius [m]                                            5.29177208590000E-11

 *** Conversion factors ***

 [u] -> [a.u.]                                              1.82288848426455E+03
 [Angstrom] -> [Bohr] = [a.u.]                              1.88972613288564E+00
 [a.u.] = [Bohr] -> [Angstrom]                              5.29177208590000E-01
 [a.u.] -> [s]                                              2.41888432650478E-17
 [a.u.] -> [fs]                                             2.41888432650478E-02
 [a.u.] -> [J]                                              4.35974393937059E-18
 [a.u.] -> [N]                                              8.23872205491840E-08
 [a.u.] -> [K]                                              3.15774647902944E+05
 [a.u.] -> [kJ/mol]                                         2.62549961709828E+03
 [a.u.] -> [kcal/mol]                                       6.27509468713739E+02
 [a.u.] -> [Pa]                                             2.94210107994716E+13
 [a.u.] -> [bar]                                            2.94210107994716E+08
 [a.u.] -> [atm]                                            2.90362800883016E+08
 [a.u.] -> [eV]                                             2.72113838565563E+01
 [a.u.] -> [Hz]                                             6.57968392072181E+15
 [a.u.] -> [1/cm] (wave numbers)                            2.19474631370540E+05
 [a.u./Bohr**2] -> [1/cm]                                   5.14048714338585E+03
 
 DBCSR| CPU Multiplication driver                                           XSMM
 DBCSR| Multrec recursion limit                                              512
 DBCSR| Multiplication stack size                                           1000
 DBCSR| Maximum elements for images                                    UNLIMITED
 DBCSR| Multiplicative factor virtual images                                   1
 DBCSR| Use multiplication densification                                       T
 DBCSR| Multiplication size stacks                                             3
 DBCSR| Use memory pool for CPU allocation                                     F
 DBCSR| Number of 3D layers                                               SINGLE
 DBCSR| Use MPI memory allocation                                              F
 DBCSR| Use RMA algorithm                                                      F
 DBCSR| Use Communication thread                                               T
 DBCSR| Communication thread load                                              0
 DBCSR| MPI: My node id                                                        0
 DBCSR| MPI: Number of nodes                                                   1
 DBCSR| OMP: Current number of threads                                        32
 DBCSR| OMP: Max number of threads                                            32
 DBCSR| Split modifier for TAS multiplication algorithm                  1.0E+00



                           ****  ******  ****   ****   
                          **  ** ****** **  ** ******  
                          ******   **   **  ** **  **  
                          **  **   **    ****  **  **  
                                                       
                             University of Zurich      
                                 2009 - 2015           
                                                       
                                 Version 0.0           
                                                                   


 Atomic Energy Calculation             Praseodymium [Pr]     Atomic number:   59


 METHOD    | Restricted Kohn-Sham Calculation
 METHOD    | Nonrelativistic Calculation
 FUNCTIONAL| ROUTINE=NEW
 FUNCTIONAL| PBE:
 FUNCTIONAL| J.P.Perdew, K.Burke, M.Ernzerhof, Phys. Rev. Letter, vol. 77, n 18,
 FUNCTIONAL|  pp. 3865-3868, (1996){spin unpolarized}                           

 Electronic structure
    Total number of core electrons                                         54.00
    Total number of valence electrons                                       5.00
    Total number of electrons                                              59.00
    Multiplicity                                                   not specified
    S   [  2.00  2.00  2.00  2.00  2.00] 2.00
    P   [  6.00  6.00  6.00  6.00]
    D   [ 10.00 10.00]
    F      3.00


 *******************************************************************************
                  Iteration          Convergence                     Energy [au]
 *******************************************************************************
                          1        0.207916                     -30.199643047042
                          2        0.432401E-02                 -30.205530202363
                          3        0.249928E-03                 -30.205533152572
                          4        0.319883E-04                 -30.205533186435
                          5        0.122228E-06                 -30.205533186970

 Energy components [Hartree]           Total Energy ::          -30.205533186970
                                        Band Energy ::          -21.233110461107
                                     Kinetic Energy ::           33.134630161432
                                   Potential Energy ::          -63.340163348402
                                      Virial (-V/T) ::            1.911600130734
                                        Core Energy ::          -37.253646160628
                                          XC Energy ::           -2.716473312206
                                     Coulomb Energy ::            9.764586285864
                       Total Pseudopotential Energy ::          -70.388276322060
                       Local Pseudopotential Energy ::          -41.357631952483
                    Nonlocal Pseudopotential Energy ::          -29.030644369578

 Orbital energies  State     L     Occupation   Energy[a.u.]          Energy[eV]

                       1     0          2.000      -4.967956         -135.184963

                       1     3          3.000      -3.765733         -102.470798


 Total Electron Density at R=0:                                         0.000382

 Basis Set Condition Numbers: 2*covalent radius=  6.2361
 Lattice constant:          5.612                Condition number:      100.0000
 Lattice constant:          5.924                Condition number:      100.0000
 Lattice constant:          6.236                Condition number:      100.0000
 Lattice constant:          6.548                Condition number:      100.0000
 Lattice constant:          6.860                Condition number:      100.0000
 Lattice constant:          7.172                Condition number:      100.0000
 Lattice constant:          7.483                Condition number:      100.0000
 Lattice constant:          7.795                Condition number:      100.0000
 Lattice constant:          8.107                Condition number:      100.0000
 Lattice constant:            Inf                Condition number:      100.0000

 Basis Set Completeness Estimates
   L-quantum number:   0
    Slater Exponent           Completeness n-qm= 1          Completeness n-qm= 6
         117.400000                       1.000000                      0.999999
         104.381349                       1.000000                      0.999990
          91.362698                       1.000000                      0.999991
          78.344048                       1.000000                      0.999996
          65.325397                       1.000000                      0.999991
          52.306746                       1.000000                      0.999989
          39.288095                       1.000000                      0.999995
          26.269444                       1.000000                      0.999988
          13.250794                       1.000000                      0.999987
           0.232143                       0.984511                      0.042843
   L-quantum number:   1
    Slater Exponent           Completeness n-qm= 2          Completeness n-qm= 5
          38.700000                       1.000000                      0.999997
          34.467361                       1.000000                      0.999999
          30.234722                       1.000000                      0.999996
          26.002083                       1.000000                      0.999999
          21.769444                       1.000000                      0.999996
          17.536806                       1.000000                      0.999999
          13.304167                       1.000000                      0.999998
           9.071528                       1.000000                      0.999999
           4.838889                       1.000000                      0.999998
           0.606250                       0.986040                      0.494865
   L-quantum number:   2
    Slater Exponent           Completeness n-qm= 3          Completeness n-qm= 4
          13.566667                       1.000000                      0.999999
          12.244695                       1.000000                      0.999999
          10.922723                       1.000000                      0.999999
           9.600751                       1.000000                      0.999999
           8.278779                       1.000000                      0.999999
           6.956807                       1.000000                      0.999999
           5.634835                       1.000000                      0.999999
           4.312863                       1.000000                      0.999998
           2.990891                       0.999987                      0.999650
           1.668919                       0.940645                      0.797267
   L-quantum number:   3
    Slater Exponent           Completeness n-qm= 4          Completeness n-qm= 5
           6.675676                       0.999999                      0.999993
           6.119369                       0.999998                      0.999995
           5.563063                       0.999998                      0.999998
           5.006757                       0.999999                      0.999994
           4.450450                       0.999998                      0.999994
           3.894144                       0.999998                      0.999997
           3.337838                       0.999999                      0.999992
           2.781532                       0.999998                      0.999996
           2.225225                       0.999998                      0.999995
           1.668919                       0.999996                      0.999857


                             NORMAL TERMINATION OF     
                                                       
                           ****  ******  ****   ****   
                          **  ** ****** **  ** ******  
                          ******   **   **  ** **  **  
                          **  **   **    ****  **  **  


 -------------------------------------------------------------------------------
 -                                                                             -
 -                                DBCSR STATISTICS                             -
 -                                                                             -
 -------------------------------------------------------------------------------
 COUNTER                                    TOTAL       BLAS       SMM       ACC
 flops inhomo. stacks                           0       0.0%      0.0%      0.0%
 flops total                         0.000000E+00       0.0%      0.0%      0.0%
 flops max/rank                      0.000000E+00       0.0%      0.0%      0.0%
 matmuls inhomo. stacks                         0       0.0%      0.0%      0.0%
 matmuls total                                  0       0.0%      0.0%      0.0%
 number of processed stacks                     0       0.0%      0.0%      0.0%
 average stack size                                     0.0       0.0       0.0
 marketing flops                     0.000000E+00
 -------------------------------------------------------------------------------
 -                                                                             -
 -                      DBCSR MESSAGE PASSING PERFORMANCE                      -
 -                                                                             -
 -------------------------------------------------------------------------------
 ROUTINE             CALLS      AVE VOLUME [Bytes]
 MP_Bcast                1                     12.
 MP_Allreduce           19                     21.
 -------------------------------------------------------------------------------

 -------------------------------------------------------------------------------
 -                                                                             -
 -                                GRID STATISTICS                              -
 -                                                                             -
 -------------------------------------------------------------------------------
 LP    KERNEL             BACKEND                              COUNT     PERCENT
 -------------------------------------------------------------------------------

 MEMORY| Estimated peak process memory [MiB]                                 123

 -------------------------------------------------------------------------------
 -                                                                             -
 -                         MESSAGE PASSING PERFORMANCE                         -
 -                                                                             -
 -------------------------------------------------------------------------------

 ROUTINE             CALLS      AVE VOLUME [Bytes]
 MP_Allreduce          262                      8.
 -------------------------------------------------------------------------------


 -------------------------------------------------------------------------------
 -                                                                             -
 -                           R E F E R E N C E S                               -
 -                                                                             -
 -------------------------------------------------------------------------------
 
 CP2K version 8.2, the CP2K developers group (2021).
 CP2K is freely available from https://www.cp2k.org/ .

 Schuett, Ole; Messmer, Peter; Hutter, Juerg; VandeVondele, Joost. 
 Electronic Structure Calculations on Graphics Processing Units, John
 Wiley & Sons, Ltd, 173-190 (2016). 
 GPU-Accelerated Sparse Matrix-Matrix Multiplication for
 Linear Scaling Density Functional Theory.
 https://doi.org/10.1002/9781118670712.ch8

 Heinecke, A; Henry, G; Hutchinson, M; Pabst, H. 
 Proceedings of Intl. Supercomputing Conference, 981-991 (2016). 
 LIBXSMM: Accelerating Small Matrix Multiplications
 by Runtime Code Generation.
 https://doi.org/10.1109/SC.2016.83

 Borstnik, U; VandeVondele, J; Weber, V; Hutter, J. 
 PARALLEL COMPUTING, 40 (5-6), 47-58 (2014). 
 Sparse matrix multiplication: The distributed block-compressed sparse
 row library.
 https://doi.org/10.1016/j.parco.2014.03.012

 Hutter, J; Iannuzzi, M; Schiffmann, F; VandeVondele, J. 
 WIREs Comput Mol Sci., 4 (1), 15-25 (2014). 
 CP2K: atomistic simulations of condensed matter systems.
 https://doi.org/10.1002/wcms.1159

 Frigo, M; Johnson, SG. 
 PROCEEDINGS OF THE IEEE, 93 (2), 216-231 (2005). 
 The design and implementation of FFTW3.
 https://doi.org/10.1109/JPROC.2004.840301

 Perdew, JP; Burke, K; Ernzerhof, M. 
 PHYSICAL REVIEW LETTERS, 77 (18), 3865-3868 (1996). 
 Generalized gradient approximation made simple.
 https://doi.org/10.1103/PhysRevLett.77.3865


 -------------------------------------------------------------------------------
 -                                                                             -
 -                                T I M I N G                                  -
 -                                                                             -
 -------------------------------------------------------------------------------
 SUBROUTINE                       CALLS  ASD         SELF TIME        TOTAL TIME
                                MAXIMUM       AVERAGE  MAXIMUM  AVERAGE  MAXIMUM
 CP2K                                 1  1.0    0.018    0.018    0.885    0.885
 atom_code                            1  2.0    0.000    0.000    0.866    0.866
 atom_energy_opt                      1  3.0    0.822    0.822    0.866    0.866
 calculate_atom                       1  4.0    0.000    0.000    0.040    0.040
 calculate_atom_restricted            1  5.0    0.016    0.016    0.040    0.040
 calculate_atom_vxc_lda               5  6.0    0.012    0.012    0.024    0.024
 -------------------------------------------------------------------------------

 The number of warnings for this run is : 0
 
 -------------------------------------------------------------------------------
  **** **** ******  **  PROGRAM ENDED AT                 2022-03-25 00:15:20.158
 ***** ** ***  *** **   PROGRAM RAN ON                              threadripper
 **    ****   ******    PROGRAM RAN BY                                     simon
 ***** **    ** ** **   PROGRAM PROCESS ID                               2801515
  **** **  *******  **  PROGRAM STOPPED IN /fast-scratch/cp2k-generate-upf/lanth
                                           anides-nc-pseudos/Pr
