
  **** **** ******  **  PROGRAM STARTED AT               2022-03-25 08:55:59.988
 ***** ** ***  *** **   PROGRAM STARTED ON                          threadripper
 **    ****   ******    PROGRAM STARTED BY                                 simon
 ***** **    ** ** **   PROGRAM PROCESS ID                               2872942
  **** **  *******  **  PROGRAM STARTED IN /fast-scratch/cp2k-generate-upf/NC-La
                                           nthanide-pseudos/Ho

 CP2K| version string:                                          CP2K version 8.2
 CP2K| source code revision number:                                  git:310b7ab
 CP2K| cp2kflags: omp libint fftw3 libxc parallel mpi3 scalapack xsmm           
 CP2K| is freely available from                            https://www.cp2k.org/
 CP2K| Program compiled at                          Wed Mar 23 11:46:09 CET 2022
 CP2K| Program compiled on                                          threadripper
 CP2K| Program compiled for                                   linux-arch-zen-gcc
 CP2K| Data directory path    /mnt/nvme/spack/opt/spack/linux-arch-zen/gcc-11.2.
 CP2K| Input file name                                                    Ho.inp

 GLOBAL| Method name                                                        ATOM
 GLOBAL| Project name                                                    PROJECT
 GLOBAL| Run type                                                   ENERGY_FORCE
 GLOBAL| FFT library                                                       FFTW3
 GLOBAL| Diagonalization library                                       ScaLAPACK
 GLOBAL| Orthonormality check for eigenvectors                          DISABLED
 GLOBAL| Matrix multiplication library                                    SCALAP
 GLOBAL| All-to-all communication in single precision                          F
 GLOBAL| FFTs using library dependent lengths                                  F
 GLOBAL| Grid backend                                                       AUTO
 GLOBAL| Global print level                                               MEDIUM
 GLOBAL| MPI I/O enabled                                                       T
 GLOBAL| Total number of message passing processes                             1
 GLOBAL| Number of threads for this process                                   32
 GLOBAL| This output is from process                                           0
 GLOBAL| CPU model name           AMD Ryzen Threadripper 1950X 16-Core Processor
 GLOBAL| CPUID                                                              1002

 MEMORY| system memory details [Kb]
 MEMORY|                        rank 0           min           max       average
 MEMORY| MemTotal             65758036      65758036      65758036      65758036
 MEMORY| MemFree              35196828      35196828      35196828      35196828
 MEMORY| Buffers               3437484       3437484       3437484       3437484
 MEMORY| Cached               21319468      21319468      21319468      21319468
 MEMORY| Slab                  3653324       3653324       3653324       3653324
 MEMORY| SReclaimable          3278304       3278304       3278304       3278304
 MEMORY| MemLikelyFree        63232084      63232084      63232084      63232084


 *** Fundamental physical constants (SI units) ***

 *** Literature: B. J. Mohr and B. N. Taylor,
 ***             CODATA recommended values of the fundamental physical
 ***             constants: 2006, Web Version 5.1
 ***             http://physics.nist.gov/constants

 Speed of light in vacuum [m/s]                             2.99792458000000E+08
 Magnetic constant or permeability of vacuum [N/A**2]       1.25663706143592E-06
 Electric constant or permittivity of vacuum [F/m]          8.85418781762039E-12
 Planck constant (h) [J*s]                                  6.62606896000000E-34
 Planck constant (h-bar) [J*s]                              1.05457162825177E-34
 Elementary charge [C]                                      1.60217648700000E-19
 Electron mass [kg]                                         9.10938215000000E-31
 Electron g factor [ ]                                     -2.00231930436220E+00
 Proton mass [kg]                                           1.67262163700000E-27
 Fine-structure constant                                    7.29735253760000E-03
 Rydberg constant [1/m]                                     1.09737315685270E+07
 Avogadro constant [1/mol]                                  6.02214179000000E+23
 Boltzmann constant [J/K]                                   1.38065040000000E-23
 Atomic mass unit [kg]                                      1.66053878200000E-27
 Bohr radius [m]                                            5.29177208590000E-11

 *** Conversion factors ***

 [u] -> [a.u.]                                              1.82288848426455E+03
 [Angstrom] -> [Bohr] = [a.u.]                              1.88972613288564E+00
 [a.u.] = [Bohr] -> [Angstrom]                              5.29177208590000E-01
 [a.u.] -> [s]                                              2.41888432650478E-17
 [a.u.] -> [fs]                                             2.41888432650478E-02
 [a.u.] -> [J]                                              4.35974393937059E-18
 [a.u.] -> [N]                                              8.23872205491840E-08
 [a.u.] -> [K]                                              3.15774647902944E+05
 [a.u.] -> [kJ/mol]                                         2.62549961709828E+03
 [a.u.] -> [kcal/mol]                                       6.27509468713739E+02
 [a.u.] -> [Pa]                                             2.94210107994716E+13
 [a.u.] -> [bar]                                            2.94210107994716E+08
 [a.u.] -> [atm]                                            2.90362800883016E+08
 [a.u.] -> [eV]                                             2.72113838565563E+01
 [a.u.] -> [Hz]                                             6.57968392072181E+15
 [a.u.] -> [1/cm] (wave numbers)                            2.19474631370540E+05
 [a.u./Bohr**2] -> [1/cm]                                   5.14048714338585E+03
 
 DBCSR| CPU Multiplication driver                                           XSMM
 DBCSR| Multrec recursion limit                                              512
 DBCSR| Multiplication stack size                                           1000
 DBCSR| Maximum elements for images                                    UNLIMITED
 DBCSR| Multiplicative factor virtual images                                   1
 DBCSR| Use multiplication densification                                       T
 DBCSR| Multiplication size stacks                                             3
 DBCSR| Use memory pool for CPU allocation                                     F
 DBCSR| Number of 3D layers                                               SINGLE
 DBCSR| Use MPI memory allocation                                              F
 DBCSR| Use RMA algorithm                                                      F
 DBCSR| Use Communication thread                                               T
 DBCSR| Communication thread load                                              0
 DBCSR| MPI: My node id                                                        0
 DBCSR| MPI: Number of nodes                                                   1
 DBCSR| OMP: Current number of threads                                        32
 DBCSR| OMP: Max number of threads                                            32
 DBCSR| Split modifier for TAS multiplication algorithm                  1.0E+00



                           ****  ******  ****   ****   
                          **  ** ****** **  ** ******  
                          ******   **   **  ** **  **  
                          **  **   **    ****  **  **  
                                                       
                             University of Zurich      
                                 2009 - 2015           
                                                       
                                 Version 0.0           
                                                                   


 Atomic Energy Calculation             Holmium [Ho]          Atomic number:   67


 METHOD    | Restricted Kohn-Sham Calculation
 METHOD    | Nonrelativistic Calculation
 FUNCTIONAL| ROUTINE=NEW
 FUNCTIONAL| PBE:
 FUNCTIONAL| J.P.Perdew, K.Burke, M.Ernzerhof, Phys. Rev. Letter, vol. 77, n 18,
 FUNCTIONAL|  pp. 3865-3868, (1996){spin unpolarized}                           

 Electronic structure
    Total number of core electrons                                         36.00
    Total number of valence electrons                                      31.00
    Total number of electrons                                              67.00
    Multiplicity                                                   not specified
    S   [  2.00  2.00  2.00  2.00] 2.00  2.00
    P   [  6.00  6.00  6.00] 6.00
    D   [ 10.00]10.00
    F     11.00


 *******************************************************************************
                  Iteration          Convergence                     Energy [au]
 *******************************************************************************
                          1         28.2093                    -416.926231745528
                          2         26.5062                    -421.307638261213
                          3         6.32168                    -475.795097107210
                          4         1.39769                    -481.245556150867
                          5        0.246169                    -481.464954320258
                          6        0.865437E-01                -481.471202346929
                          7        0.111986E-01                -481.472366002883
                          8        0.426367E-03                -481.472392957858
                          9        0.211455E-04                -481.472392998948
                         10        0.271482E-05                -481.472392999164
                         11        0.210507E-05                -481.472392999164
                         12        0.314907E-07                -481.472392999167

 Energy components [Hartree]           Total Energy ::         -481.472392999167
                                        Band Energy ::          -69.250543360166
                                     Kinetic Energy ::          359.089471712171
                                   Potential Energy ::         -840.561864711338
                                      Virial (-V/T) ::            2.340814562742
                                        Core Energy ::         -870.909634953061
                                          XC Energy ::          -32.876694272503
                                     Coulomb Energy ::          422.313936226397
                       Total Pseudopotential Energy ::        -1229.999106665232
                       Local Pseudopotential Energy ::        -1014.358454299469
                    Nonlocal Pseudopotential Energy ::         -215.640652365763

 Orbital energies  State     L     Occupation   Energy[a.u.]          Energy[eV]

                       1     0          2.000      -1.848048          -50.287931
                       2     0          2.000      -0.136350           -3.710284

                       1     1          6.000      -0.938716          -25.543765

                       1     2         10.000      -5.838338         -158.869245

                       1     3         11.000      -0.115098           -3.131968


 Total Electron Density at R=0:                                         0.752412

 Basis Set Condition Numbers: 2*covalent radius=  5.9715
 Lattice constant:          5.374                Condition number:      100.0000
 Lattice constant:          5.673                Condition number:      100.0000
 Lattice constant:          5.972                Condition number:      100.0000
 Lattice constant:          6.270                Condition number:      100.0000
 Lattice constant:          6.569                Condition number:      100.0000
 Lattice constant:          6.867                Condition number:      100.0000
 Lattice constant:          7.166                Condition number:      100.0000
 Lattice constant:          7.464                Condition number:      100.0000
 Lattice constant:          7.763                Condition number:      100.0000
 Lattice constant:            Inf                Condition number:      100.0000

 Basis Set Completeness Estimates
   L-quantum number:   0
    Slater Exponent           Completeness n-qm= 1          Completeness n-qm= 6
         133.400000                       1.000000                      0.999987
         118.603571                       1.000000                      0.999991
         103.807143                       1.000000                      0.999997
          89.010714                       1.000000                      0.999986
          74.214286                       1.000000                      0.999998
          59.417857                       1.000000                      0.999993
          44.621429                       1.000000                      0.999987
          29.825000                       1.000000                      0.999994
          15.028571                       1.000000                      0.999994
           0.232143                       0.991769                      0.074645
   L-quantum number:   1
    Slater Exponent           Completeness n-qm= 2          Completeness n-qm= 5
          39.900000                       1.000000                      0.999996
          35.534028                       1.000000                      0.999997
          31.168056                       1.000000                      0.999999
          26.802083                       1.000000                      0.999995
          22.436111                       1.000000                      0.999999
          18.070139                       1.000000                      0.999996
          13.704167                       1.000000                      0.999995
           9.338194                       1.000000                      0.999996
           4.972222                       1.000000                      0.999995
           0.606250                       0.993740                      0.614955
   L-quantum number:   2
    Slater Exponent           Completeness n-qm= 3          Completeness n-qm= 4
          13.566667                       1.000000                      0.999999
          12.244695                       1.000000                      0.999999
          10.922723                       1.000000                      0.999999
           9.600751                       1.000000                      0.999999
           8.278779                       1.000000                      0.999998
           6.956807                       1.000000                      0.999999
           5.634835                       1.000000                      0.999998
           4.312863                       1.000000                      0.999998
           2.990891                       1.000000                      0.999971
           1.668919                       0.968436                      0.871024
   L-quantum number:   3
    Slater Exponent           Completeness n-qm= 4          Completeness n-qm= 5
           6.675676                       0.999999                      0.999995
           6.119369                       0.999999                      0.999992
           5.563063                       0.999998                      0.999995
           5.006757                       0.999998                      0.999997
           4.450450                       0.999999                      0.999992
           3.894144                       0.999998                      0.999996
           3.337838                       0.999999                      0.999991
           2.781532                       0.999997                      0.999995
           2.225225                       0.999998                      0.999960
           1.668919                       0.997291                      0.981543


                             NORMAL TERMINATION OF     
                                                       
                           ****  ******  ****   ****   
                          **  ** ****** **  ** ******  
                          ******   **   **  ** **  **  
                          **  **   **    ****  **  **  


 -------------------------------------------------------------------------------
 -                                                                             -
 -                                DBCSR STATISTICS                             -
 -                                                                             -
 -------------------------------------------------------------------------------
 COUNTER                                    TOTAL       BLAS       SMM       ACC
 flops inhomo. stacks                           0       0.0%      0.0%      0.0%
 flops total                         0.000000E+00       0.0%      0.0%      0.0%
 flops max/rank                      0.000000E+00       0.0%      0.0%      0.0%
 matmuls inhomo. stacks                         0       0.0%      0.0%      0.0%
 matmuls total                                  0       0.0%      0.0%      0.0%
 number of processed stacks                     0       0.0%      0.0%      0.0%
 average stack size                                     0.0       0.0       0.0
 marketing flops                     0.000000E+00
 -------------------------------------------------------------------------------
 -                                                                             -
 -                      DBCSR MESSAGE PASSING PERFORMANCE                      -
 -                                                                             -
 -------------------------------------------------------------------------------
 ROUTINE             CALLS      AVE VOLUME [Bytes]
 MP_Bcast                1                     12.
 MP_Allreduce           19                     21.
 -------------------------------------------------------------------------------

 -------------------------------------------------------------------------------
 -                                                                             -
 -                                GRID STATISTICS                              -
 -                                                                             -
 -------------------------------------------------------------------------------
 LP    KERNEL             BACKEND                              COUNT     PERCENT
 -------------------------------------------------------------------------------

 MEMORY| Estimated peak process memory [MiB]                                 124

 -------------------------------------------------------------------------------
 -                                                                             -
 -                         MESSAGE PASSING PERFORMANCE                         -
 -                                                                             -
 -------------------------------------------------------------------------------

 ROUTINE             CALLS      AVE VOLUME [Bytes]
 MP_Allreduce          262                      8.
 -------------------------------------------------------------------------------


 -------------------------------------------------------------------------------
 -                                                                             -
 -                           R E F E R E N C E S                               -
 -                                                                             -
 -------------------------------------------------------------------------------
 
 CP2K version 8.2, the CP2K developers group (2021).
 CP2K is freely available from https://www.cp2k.org/ .

 Schuett, Ole; Messmer, Peter; Hutter, Juerg; VandeVondele, Joost. 
 Electronic Structure Calculations on Graphics Processing Units, John
 Wiley & Sons, Ltd, 173-190 (2016). 
 GPU-Accelerated Sparse Matrix-Matrix Multiplication for
 Linear Scaling Density Functional Theory.
 https://doi.org/10.1002/9781118670712.ch8

 Heinecke, A; Henry, G; Hutchinson, M; Pabst, H. 
 Proceedings of Intl. Supercomputing Conference, 981-991 (2016). 
 LIBXSMM: Accelerating Small Matrix Multiplications
 by Runtime Code Generation.
 https://doi.org/10.1109/SC.2016.83

 Borstnik, U; VandeVondele, J; Weber, V; Hutter, J. 
 PARALLEL COMPUTING, 40 (5-6), 47-58 (2014). 
 Sparse matrix multiplication: The distributed block-compressed sparse
 row library.
 https://doi.org/10.1016/j.parco.2014.03.012

 Hutter, J; Iannuzzi, M; Schiffmann, F; VandeVondele, J. 
 WIREs Comput Mol Sci., 4 (1), 15-25 (2014). 
 CP2K: atomistic simulations of condensed matter systems.
 https://doi.org/10.1002/wcms.1159

 Frigo, M; Johnson, SG. 
 PROCEEDINGS OF THE IEEE, 93 (2), 216-231 (2005). 
 The design and implementation of FFTW3.
 https://doi.org/10.1109/JPROC.2004.840301

 Perdew, JP; Burke, K; Ernzerhof, M. 
 PHYSICAL REVIEW LETTERS, 77 (18), 3865-3868 (1996). 
 Generalized gradient approximation made simple.
 https://doi.org/10.1103/PhysRevLett.77.3865


 -------------------------------------------------------------------------------
 -                                                                             -
 -                                T I M I N G                                  -
 -                                                                             -
 -------------------------------------------------------------------------------
 SUBROUTINE                       CALLS  ASD         SELF TIME        TOTAL TIME
                                MAXIMUM       AVERAGE  MAXIMUM  AVERAGE  MAXIMUM
 CP2K                                 1  1.0    0.021    0.021    0.872    0.872
 atom_code                            1  2.0    0.000    0.000    0.851    0.851
 atom_energy_opt                      1  3.0    0.763    0.763    0.851    0.851
 calculate_atom                       1  4.0    0.000    0.000    0.084    0.084
 calculate_atom_restricted            1  5.0    0.035    0.035    0.084    0.084
 calculate_atom_vxc_lda              12  6.0    0.024    0.024    0.049    0.049
 xc_functional_eval                  12  7.0    0.000    0.000    0.024    0.024
 pbe_lda_eval                        12  8.0    0.024    0.024    0.024    0.024
 -------------------------------------------------------------------------------

 The number of warnings for this run is : 0
 
 -------------------------------------------------------------------------------
  **** **** ******  **  PROGRAM ENDED AT                 2022-03-25 08:56:01.160
 ***** ** ***  *** **   PROGRAM RAN ON                              threadripper
 **    ****   ******    PROGRAM RAN BY                                     simon
 ***** **    ** ** **   PROGRAM PROCESS ID                               2872942
  **** **  *******  **  PROGRAM STOPPED IN /fast-scratch/cp2k-generate-upf/NC-La
                                           nthanide-pseudos/Ho
