
  **** **** ******  **  PROGRAM STARTED AT               2022-03-25 08:56:02.164
 ***** ** ***  *** **   PROGRAM STARTED ON                          threadripper
 **    ****   ******    PROGRAM STARTED BY                                 simon
 ***** **    ** ** **   PROGRAM PROCESS ID                               2875840
  **** **  *******  **  PROGRAM STARTED IN /fast-scratch/cp2k-generate-upf/NC-La
                                           nthanide-pseudos/Lu

 CP2K| version string:                                          CP2K version 8.2
 CP2K| source code revision number:                                  git:310b7ab
 CP2K| cp2kflags: omp libint fftw3 libxc parallel mpi3 scalapack xsmm           
 CP2K| is freely available from                            https://www.cp2k.org/
 CP2K| Program compiled at                          Wed Mar 23 11:46:09 CET 2022
 CP2K| Program compiled on                                          threadripper
 CP2K| Program compiled for                                   linux-arch-zen-gcc
 CP2K| Data directory path    /mnt/nvme/spack/opt/spack/linux-arch-zen/gcc-11.2.
 CP2K| Input file name                                                    Lu.inp

 GLOBAL| Method name                                                        ATOM
 GLOBAL| Project name                                                    PROJECT
 GLOBAL| Run type                                                   ENERGY_FORCE
 GLOBAL| FFT library                                                       FFTW3
 GLOBAL| Diagonalization library                                       ScaLAPACK
 GLOBAL| Orthonormality check for eigenvectors                          DISABLED
 GLOBAL| Matrix multiplication library                                    SCALAP
 GLOBAL| All-to-all communication in single precision                          F
 GLOBAL| FFTs using library dependent lengths                                  F
 GLOBAL| Grid backend                                                       AUTO
 GLOBAL| Global print level                                               MEDIUM
 GLOBAL| MPI I/O enabled                                                       T
 GLOBAL| Total number of message passing processes                             1
 GLOBAL| Number of threads for this process                                   32
 GLOBAL| This output is from process                                           0
 GLOBAL| CPU model name           AMD Ryzen Threadripper 1950X 16-Core Processor
 GLOBAL| CPUID                                                              1002

 MEMORY| system memory details [Kb]
 MEMORY|                        rank 0           min           max       average
 MEMORY| MemTotal             65758036      65758036      65758036      65758036
 MEMORY| MemFree              35193600      35193600      35193600      35193600
 MEMORY| Buffers               3437492       3437492       3437492       3437492
 MEMORY| Cached               21319524      21319524      21319524      21319524
 MEMORY| Slab                  3652464       3652464       3652464       3652464
 MEMORY| SReclaimable          3278284       3278284       3278284       3278284
 MEMORY| MemLikelyFree        63228900      63228900      63228900      63228900


 *** Fundamental physical constants (SI units) ***

 *** Literature: B. J. Mohr and B. N. Taylor,
 ***             CODATA recommended values of the fundamental physical
 ***             constants: 2006, Web Version 5.1
 ***             http://physics.nist.gov/constants

 Speed of light in vacuum [m/s]                             2.99792458000000E+08
 Magnetic constant or permeability of vacuum [N/A**2]       1.25663706143592E-06
 Electric constant or permittivity of vacuum [F/m]          8.85418781762039E-12
 Planck constant (h) [J*s]                                  6.62606896000000E-34
 Planck constant (h-bar) [J*s]                              1.05457162825177E-34
 Elementary charge [C]                                      1.60217648700000E-19
 Electron mass [kg]                                         9.10938215000000E-31
 Electron g factor [ ]                                     -2.00231930436220E+00
 Proton mass [kg]                                           1.67262163700000E-27
 Fine-structure constant                                    7.29735253760000E-03
 Rydberg constant [1/m]                                     1.09737315685270E+07
 Avogadro constant [1/mol]                                  6.02214179000000E+23
 Boltzmann constant [J/K]                                   1.38065040000000E-23
 Atomic mass unit [kg]                                      1.66053878200000E-27
 Bohr radius [m]                                            5.29177208590000E-11

 *** Conversion factors ***

 [u] -> [a.u.]                                              1.82288848426455E+03
 [Angstrom] -> [Bohr] = [a.u.]                              1.88972613288564E+00
 [a.u.] = [Bohr] -> [Angstrom]                              5.29177208590000E-01
 [a.u.] -> [s]                                              2.41888432650478E-17
 [a.u.] -> [fs]                                             2.41888432650478E-02
 [a.u.] -> [J]                                              4.35974393937059E-18
 [a.u.] -> [N]                                              8.23872205491840E-08
 [a.u.] -> [K]                                              3.15774647902944E+05
 [a.u.] -> [kJ/mol]                                         2.62549961709828E+03
 [a.u.] -> [kcal/mol]                                       6.27509468713739E+02
 [a.u.] -> [Pa]                                             2.94210107994716E+13
 [a.u.] -> [bar]                                            2.94210107994716E+08
 [a.u.] -> [atm]                                            2.90362800883016E+08
 [a.u.] -> [eV]                                             2.72113838565563E+01
 [a.u.] -> [Hz]                                             6.57968392072181E+15
 [a.u.] -> [1/cm] (wave numbers)                            2.19474631370540E+05
 [a.u./Bohr**2] -> [1/cm]                                   5.14048714338585E+03
 
 DBCSR| CPU Multiplication driver                                           XSMM
 DBCSR| Multrec recursion limit                                              512
 DBCSR| Multiplication stack size                                           1000
 DBCSR| Maximum elements for images                                    UNLIMITED
 DBCSR| Multiplicative factor virtual images                                   1
 DBCSR| Use multiplication densification                                       T
 DBCSR| Multiplication size stacks                                             3
 DBCSR| Use memory pool for CPU allocation                                     F
 DBCSR| Number of 3D layers                                               SINGLE
 DBCSR| Use MPI memory allocation                                              F
 DBCSR| Use RMA algorithm                                                      F
 DBCSR| Use Communication thread                                               T
 DBCSR| Communication thread load                                              0
 DBCSR| MPI: My node id                                                        0
 DBCSR| MPI: Number of nodes                                                   1
 DBCSR| OMP: Current number of threads                                        32
 DBCSR| OMP: Max number of threads                                            32
 DBCSR| Split modifier for TAS multiplication algorithm                  1.0E+00



                           ****  ******  ****   ****   
                          **  ** ****** **  ** ******  
                          ******   **   **  ** **  **  
                          **  **   **    ****  **  **  
                                                       
                             University of Zurich      
                                 2009 - 2015           
                                                       
                                 Version 0.0           
                                                                   


 Atomic Energy Calculation             Lutetium [Lu]         Atomic number:   71


 METHOD    | Restricted Kohn-Sham Calculation
 METHOD    | Nonrelativistic Calculation
 FUNCTIONAL| ROUTINE=NEW
 FUNCTIONAL| PBE:
 FUNCTIONAL| J.P.Perdew, K.Burke, M.Ernzerhof, Phys. Rev. Letter, vol. 77, n 18,
 FUNCTIONAL|  pp. 3865-3868, (1996){spin unpolarized}                           

 Electronic structure
    Total number of core electrons                                         36.00
    Total number of valence electrons                                      35.00
    Total number of electrons                                              71.00
    Multiplicity                                                   not specified
    S   [  2.00  2.00  2.00  2.00] 2.00  2.00
    P   [  6.00  6.00  6.00] 6.00
    D   [ 10.00]10.00  1.00
    F     14.00


 *******************************************************************************
                  Iteration          Convergence                     Energy [au]
 *******************************************************************************
                          1         30.5107                    -546.383701245270
                          2         36.0686                    -606.412767830314
                          3         12.2355                    -652.022466712265
                          4        0.659184                    -662.295355142571
                          5        0.122904                    -662.337134082917
                          6        0.992261E-02                -662.339910675363
                          7        0.862422E-02                -662.339971707638
                          8        0.571498E-03                -662.339982418201
                          9        0.163025E-04                -662.339982675354
                         10        0.273016E-06                -662.339982675467

 Energy components [Hartree]           Total Energy ::         -662.339982675467
                                        Band Energy ::          -87.411208479141
                                     Kinetic Energy ::          493.320383380208
                                   Potential Energy ::        -1155.660366055675
                                      Virial (-V/T) ::            2.342616289514
                                        Core Energy ::        -1208.035593909351
                                          XC Energy ::          -42.232003963045
                                     Coulomb Energy ::          587.927615196929
                       Total Pseudopotential Energy ::        -1701.355977289559
                       Local Pseudopotential Energy ::        -1373.414301991102
                    Nonlocal Pseudopotential Energy ::         -327.941675298457

 Orbital energies  State     L     Occupation   Energy[a.u.]          Energy[eV]

                       1     0          2.000      -2.247956          -61.169995
                       2     0          2.000      -0.167981           -4.571000

                       1     1          6.000      -1.131553          -30.791131

                       1     2         10.000      -7.058199         -192.063354
                       2     2          1.000      -0.059175           -1.610231

                       1     3         14.000      -0.367775          -10.007671


 Total Electron Density at R=0:                                         0.283397

 Basis Set Condition Numbers: 2*covalent radius=  5.8959
 Lattice constant:          5.306                Condition number:      100.0000
 Lattice constant:          5.601                Condition number:      100.0000
 Lattice constant:          5.896                Condition number:      100.0000
 Lattice constant:          6.191                Condition number:      100.0000
 Lattice constant:          6.486                Condition number:      100.0000
 Lattice constant:          6.780                Condition number:      100.0000
 Lattice constant:          7.075                Condition number:      100.0000
 Lattice constant:          7.370                Condition number:      100.0000
 Lattice constant:          7.665                Condition number:      100.0000
 Lattice constant:            Inf                Condition number:      100.0000

 Basis Set Completeness Estimates
   L-quantum number:   0
    Slater Exponent           Completeness n-qm= 1          Completeness n-qm= 6
         141.400000                       1.000000                      0.999987
         125.714683                       1.000000                      0.999998
         110.029365                       1.000000                      0.999991
          94.344048                       1.000000                      0.999993
          78.658730                       1.000000                      0.999992
          62.973413                       1.000000                      0.999999
          47.288095                       1.000000                      0.999994
          31.602778                       1.000000                      0.999999
          15.917460                       1.000000                      0.999999
           0.232143                       0.896548                      0.002585
   L-quantum number:   1
    Slater Exponent           Completeness n-qm= 2          Completeness n-qm= 5
          41.350000                       1.000000                      0.999996
          36.822917                       1.000000                      0.999999
          32.295833                       1.000000                      0.999996
          27.768750                       1.000000                      0.999998
          23.241667                       1.000000                      0.999997
          18.714583                       1.000000                      0.999999
          14.187500                       1.000000                      0.999998
           9.660417                       1.000000                      0.999999
           5.133333                       1.000000                      0.999998
           0.606250                       0.980342                      0.438060
   L-quantum number:   2
    Slater Exponent           Completeness n-qm= 3          Completeness n-qm= 5
          14.000000                       1.000000                      0.999995
          12.504861                       1.000000                      0.999999
          11.009722                       1.000000                      0.999996
           9.514583                       1.000000                      0.999996
           8.019444                       1.000000                      0.999997
           6.524306                       1.000000                      0.999998
           5.029167                       1.000000                      0.999995
           3.534028                       1.000000                      0.999995
           2.038889                       1.000000                      0.999991
           0.543750                       0.859958                      0.371478
   L-quantum number:   3
    Slater Exponent           Completeness n-qm= 4          Completeness n-qm= 5
           6.675676                       0.999999                      0.999993
           6.119369                       0.999998                      0.999997
           5.563063                       0.999999                      0.999996
           5.006757                       0.999999                      0.999992
           4.450450                       0.999998                      0.999996
           3.894144                       0.999999                      0.999993
           3.337838                       0.999998                      0.999993
           2.781532                       0.999998                      0.999990
           2.225225                       0.999896                      0.998417
           1.668919                       0.984921                      0.932459


                             NORMAL TERMINATION OF     
                                                       
                           ****  ******  ****   ****   
                          **  ** ****** **  ** ******  
                          ******   **   **  ** **  **  
                          **  **   **    ****  **  **  


 -------------------------------------------------------------------------------
 -                                                                             -
 -                                DBCSR STATISTICS                             -
 -                                                                             -
 -------------------------------------------------------------------------------
 COUNTER                                    TOTAL       BLAS       SMM       ACC
 flops inhomo. stacks                           0       0.0%      0.0%      0.0%
 flops total                         0.000000E+00       0.0%      0.0%      0.0%
 flops max/rank                      0.000000E+00       0.0%      0.0%      0.0%
 matmuls inhomo. stacks                         0       0.0%      0.0%      0.0%
 matmuls total                                  0       0.0%      0.0%      0.0%
 number of processed stacks                     0       0.0%      0.0%      0.0%
 average stack size                                     0.0       0.0       0.0
 marketing flops                     0.000000E+00
 -------------------------------------------------------------------------------
 -                                                                             -
 -                      DBCSR MESSAGE PASSING PERFORMANCE                      -
 -                                                                             -
 -------------------------------------------------------------------------------
 ROUTINE             CALLS      AVE VOLUME [Bytes]
 MP_Bcast                1                     12.
 MP_Allreduce           19                     21.
 -------------------------------------------------------------------------------

 -------------------------------------------------------------------------------
 -                                                                             -
 -                                GRID STATISTICS                              -
 -                                                                             -
 -------------------------------------------------------------------------------
 LP    KERNEL             BACKEND                              COUNT     PERCENT
 -------------------------------------------------------------------------------

 MEMORY| Estimated peak process memory [MiB]                                 123

 -------------------------------------------------------------------------------
 -                                                                             -
 -                         MESSAGE PASSING PERFORMANCE                         -
 -                                                                             -
 -------------------------------------------------------------------------------

 ROUTINE             CALLS      AVE VOLUME [Bytes]
 MP_Allreduce          262                      8.
 -------------------------------------------------------------------------------


 -------------------------------------------------------------------------------
 -                                                                             -
 -                           R E F E R E N C E S                               -
 -                                                                             -
 -------------------------------------------------------------------------------
 
 CP2K version 8.2, the CP2K developers group (2021).
 CP2K is freely available from https://www.cp2k.org/ .

 Schuett, Ole; Messmer, Peter; Hutter, Juerg; VandeVondele, Joost. 
 Electronic Structure Calculations on Graphics Processing Units, John
 Wiley & Sons, Ltd, 173-190 (2016). 
 GPU-Accelerated Sparse Matrix-Matrix Multiplication for
 Linear Scaling Density Functional Theory.
 https://doi.org/10.1002/9781118670712.ch8

 Heinecke, A; Henry, G; Hutchinson, M; Pabst, H. 
 Proceedings of Intl. Supercomputing Conference, 981-991 (2016). 
 LIBXSMM: Accelerating Small Matrix Multiplications
 by Runtime Code Generation.
 https://doi.org/10.1109/SC.2016.83

 Borstnik, U; VandeVondele, J; Weber, V; Hutter, J. 
 PARALLEL COMPUTING, 40 (5-6), 47-58 (2014). 
 Sparse matrix multiplication: The distributed block-compressed sparse
 row library.
 https://doi.org/10.1016/j.parco.2014.03.012

 Hutter, J; Iannuzzi, M; Schiffmann, F; VandeVondele, J. 
 WIREs Comput Mol Sci., 4 (1), 15-25 (2014). 
 CP2K: atomistic simulations of condensed matter systems.
 https://doi.org/10.1002/wcms.1159

 Frigo, M; Johnson, SG. 
 PROCEEDINGS OF THE IEEE, 93 (2), 216-231 (2005). 
 The design and implementation of FFTW3.
 https://doi.org/10.1109/JPROC.2004.840301

 Perdew, JP; Burke, K; Ernzerhof, M. 
 PHYSICAL REVIEW LETTERS, 77 (18), 3865-3868 (1996). 
 Generalized gradient approximation made simple.
 https://doi.org/10.1103/PhysRevLett.77.3865


 -------------------------------------------------------------------------------
 -                                                                             -
 -                                T I M I N G                                  -
 -                                                                             -
 -------------------------------------------------------------------------------
 SUBROUTINE                       CALLS  ASD         SELF TIME        TOTAL TIME
                                MAXIMUM       AVERAGE  MAXIMUM  AVERAGE  MAXIMUM
 CP2K                                 1  1.0    0.021    0.021    0.877    0.877
 atom_code                            1  2.0    0.000    0.000    0.855    0.855
 atom_energy_opt                      1  3.0    0.778    0.778    0.855    0.855
 calculate_atom                       1  4.0    0.000    0.000    0.072    0.072
 calculate_atom_restricted            1  5.0    0.029    0.029    0.072    0.072
 calculate_atom_vxc_lda              10  6.0    0.020    0.020    0.043    0.043
 xc_functional_eval                  10  7.0    0.000    0.000    0.023    0.023
 pbe_lda_eval                        10  8.0    0.023    0.023    0.023    0.023
 -------------------------------------------------------------------------------

 The number of warnings for this run is : 0
 
 -------------------------------------------------------------------------------
  **** **** ******  **  PROGRAM ENDED AT                 2022-03-25 08:56:03.331
 ***** ** ***  *** **   PROGRAM RAN ON                              threadripper
 **    ****   ******    PROGRAM RAN BY                                     simon
 ***** **    ** ** **   PROGRAM PROCESS ID                               2875840
  **** **  *******  **  PROGRAM STOPPED IN /fast-scratch/cp2k-generate-upf/NC-La
                                           nthanide-pseudos/Lu
