
  **** **** ******  **  PROGRAM STARTED AT               2022-03-24 23:39:01.499
 ***** ** ***  *** **   PROGRAM STARTED ON                          threadripper
 **    ****   ******    PROGRAM STARTED BY                                 simon
 ***** **    ** ** **   PROGRAM PROCESS ID                               2771961
  **** **  *******  **  PROGRAM STARTED IN /fast-scratch/cp2k-generate-upf/lanth
                                           anides-nc-pseudos/Yb

 CP2K| version string:                                          CP2K version 8.2
 CP2K| source code revision number:                                  git:310b7ab
 CP2K| cp2kflags: omp libint fftw3 libxc parallel mpi3 scalapack xsmm           
 CP2K| is freely available from                            https://www.cp2k.org/
 CP2K| Program compiled at                          Wed Mar 23 11:46:09 CET 2022
 CP2K| Program compiled on                                          threadripper
 CP2K| Program compiled for                                   linux-arch-zen-gcc
 CP2K| Data directory path    /mnt/nvme/spack/opt/spack/linux-arch-zen/gcc-11.2.
 CP2K| Input file name                                                    Yb.inp

 GLOBAL| Method name                                                        ATOM
 GLOBAL| Project name                                                    PROJECT
 GLOBAL| Run type                                                   ENERGY_FORCE
 GLOBAL| FFT library                                                       FFTW3
 GLOBAL| Diagonalization library                                       ScaLAPACK
 GLOBAL| Orthonormality check for eigenvectors                          DISABLED
 GLOBAL| Matrix multiplication library                                    SCALAP
 GLOBAL| All-to-all communication in single precision                          F
 GLOBAL| FFTs using library dependent lengths                                  F
 GLOBAL| Grid backend                                                       AUTO
 GLOBAL| Global print level                                               MEDIUM
 GLOBAL| MPI I/O enabled                                                       T
 GLOBAL| Total number of message passing processes                             1
 GLOBAL| Number of threads for this process                                   32
 GLOBAL| This output is from process                                           0
 GLOBAL| CPU model name           AMD Ryzen Threadripper 1950X 16-Core Processor
 GLOBAL| CPUID                                                              1002

 MEMORY| system memory details [Kb]
 MEMORY|                        rank 0           min           max       average
 MEMORY| MemTotal             65758036      65758036      65758036      65758036
 MEMORY| MemFree              35194696      35194696      35194696      35194696
 MEMORY| Buffers               3421124       3421124       3421124       3421124
 MEMORY| Cached               21311000      21311000      21311000      21311000
 MEMORY| Slab                  3650776       3650776       3650776       3650776
 MEMORY| SReclaimable          3275972       3275972       3275972       3275972
 MEMORY| MemLikelyFree        63202792      63202792      63202792      63202792


 *** Fundamental physical constants (SI units) ***

 *** Literature: B. J. Mohr and B. N. Taylor,
 ***             CODATA recommended values of the fundamental physical
 ***             constants: 2006, Web Version 5.1
 ***             http://physics.nist.gov/constants

 Speed of light in vacuum [m/s]                             2.99792458000000E+08
 Magnetic constant or permeability of vacuum [N/A**2]       1.25663706143592E-06
 Electric constant or permittivity of vacuum [F/m]          8.85418781762039E-12
 Planck constant (h) [J*s]                                  6.62606896000000E-34
 Planck constant (h-bar) [J*s]                              1.05457162825177E-34
 Elementary charge [C]                                      1.60217648700000E-19
 Electron mass [kg]                                         9.10938215000000E-31
 Electron g factor [ ]                                     -2.00231930436220E+00
 Proton mass [kg]                                           1.67262163700000E-27
 Fine-structure constant                                    7.29735253760000E-03
 Rydberg constant [1/m]                                     1.09737315685270E+07
 Avogadro constant [1/mol]                                  6.02214179000000E+23
 Boltzmann constant [J/K]                                   1.38065040000000E-23
 Atomic mass unit [kg]                                      1.66053878200000E-27
 Bohr radius [m]                                            5.29177208590000E-11

 *** Conversion factors ***

 [u] -> [a.u.]                                              1.82288848426455E+03
 [Angstrom] -> [Bohr] = [a.u.]                              1.88972613288564E+00
 [a.u.] = [Bohr] -> [Angstrom]                              5.29177208590000E-01
 [a.u.] -> [s]                                              2.41888432650478E-17
 [a.u.] -> [fs]                                             2.41888432650478E-02
 [a.u.] -> [J]                                              4.35974393937059E-18
 [a.u.] -> [N]                                              8.23872205491840E-08
 [a.u.] -> [K]                                              3.15774647902944E+05
 [a.u.] -> [kJ/mol]                                         2.62549961709828E+03
 [a.u.] -> [kcal/mol]                                       6.27509468713739E+02
 [a.u.] -> [Pa]                                             2.94210107994716E+13
 [a.u.] -> [bar]                                            2.94210107994716E+08
 [a.u.] -> [atm]                                            2.90362800883016E+08
 [a.u.] -> [eV]                                             2.72113838565563E+01
 [a.u.] -> [Hz]                                             6.57968392072181E+15
 [a.u.] -> [1/cm] (wave numbers)                            2.19474631370540E+05
 [a.u./Bohr**2] -> [1/cm]                                   5.14048714338585E+03
 
 DBCSR| CPU Multiplication driver                                           XSMM
 DBCSR| Multrec recursion limit                                              512
 DBCSR| Multiplication stack size                                           1000
 DBCSR| Maximum elements for images                                    UNLIMITED
 DBCSR| Multiplicative factor virtual images                                   1
 DBCSR| Use multiplication densification                                       T
 DBCSR| Multiplication size stacks                                             3
 DBCSR| Use memory pool for CPU allocation                                     F
 DBCSR| Number of 3D layers                                               SINGLE
 DBCSR| Use MPI memory allocation                                              F
 DBCSR| Use RMA algorithm                                                      F
 DBCSR| Use Communication thread                                               T
 DBCSR| Communication thread load                                              0
 DBCSR| MPI: My node id                                                        0
 DBCSR| MPI: Number of nodes                                                   1
 DBCSR| OMP: Current number of threads                                        32
 DBCSR| OMP: Max number of threads                                            32
 DBCSR| Split modifier for TAS multiplication algorithm                  1.0E+00



                           ****  ******  ****   ****   
                          **  ** ****** **  ** ******  
                          ******   **   **  ** **  **  
                          **  **   **    ****  **  **  
                                                       
                             University of Zurich      
                                 2009 - 2015           
                                                       
                                 Version 0.0           
                                                                   


 Atomic Energy Calculation             Ytterbium [Yb]        Atomic number:   70


 METHOD    | Restricted Kohn-Sham Calculation
 METHOD    | Nonrelativistic Calculation
 FUNCTIONAL| ROUTINE=NEW
 FUNCTIONAL| PBE:
 FUNCTIONAL| J.P.Perdew, K.Burke, M.Ernzerhof, Phys. Rev. Letter, vol. 77, n 18,
 FUNCTIONAL|  pp. 3865-3868, (1996){spin unpolarized}                           

 Electronic structure
    Total number of core electrons                                          0.00
    Total number of valence electrons                                      70.00
    Total number of electrons                                              70.00
    Multiplicity                                                   not specified
    S      2.00  2.00  2.00  2.00  2.00  2.00
    P      6.00  6.00  6.00  6.00
    D     10.00 10.00
    F     14.00


 *******************************************************************************
                  Iteration          Convergence                     Energy [au]
 *******************************************************************************
                          1         30.4563                  -13163.405213498407
                          2         58.7866                  -13217.660658751493
                          3         23.0008                  -13355.051580100970
                          4         1.64979                  -13394.710629320707
                          5         1.07442                  -13394.973544601520
                          6        0.755000                  -13394.979879222383
                          7        0.667555E-01              -13395.037859941813
                          8        0.437074E-02              -13395.038879374655
                          9        0.236307E-03              -13395.038883284546
                         10        0.160188E-04              -13395.038883304955
                         11        0.300477E-05              -13395.038883305151
                         12        0.205324E-06              -13395.038883305149

 Energy components [Hartree]           Total Energy ::       -13395.038883305149
                                        Band Energy ::        -8088.203017627921
                                     Kinetic Energy ::        13390.932469610567
                                   Potential Energy ::       -26785.971352915716
                                      Virial (-V/T) ::            2.000306656292
                                        Core Energy ::       -18508.748946169795
                                          XC Energy ::         -279.712522351731
                                     Coulomb Energy ::         5393.422585216376

 Orbital energies  State     L     Occupation   Energy[a.u.]          Energy[eV]

                       1     0          2.000   -2085.718279       -56755.280718
                       2     0          2.000    -338.187287        -9202.544069
                       3     0          2.000     -75.530076        -2055.277889
                       4     0          2.000     -14.349553         -390.471208
                       5     0          2.000      -1.678888          -45.684865
                       6     0          2.000      -0.132462           -3.604473

                       1     1          6.000    -323.262350        -8796.415892
                       2     1          6.000     -68.717443        -1869.896712
                       3     1          6.000     -11.579874         -315.104385
                       4     1          6.000      -0.960173          -26.127646

                       1     2         10.000     -56.022710        -1524.455465
                       2     2         10.000      -6.578554         -179.011564

                       1     3         14.000      -0.277018           -7.538034


 Total Electron Density at R=0:                                    243415.126247

 Basis Set Condition Numbers: 2*covalent radius=  5.8959

 *******************************************************************************
 *   ___                                                                       *
 *  /   \                                                                      *
 * [ABORT]                                                                     *
 *  \___/                            l value too high                          *
 *    |                                                                        *
 *  O/|                                                                        *
 * /| |                                                                        *
 * / \                                               aobasis/ai_overlap.F:2076 *
 *******************************************************************************


 ===== Routine Calling Stack ===== 

            3 atom_energy_opt
            2 atom_code
            1 CP2K
